file 13916456 1747751915                                        
version 3
run General-0-20250520-16:38:02-36724
attr configname General
attr datetime 20250520-16:38:02
attr datetimef 20250520-163802
attr experiment General
attr inifile omnetpp.ini
attr iterationvars ""
attr iterationvarsd ""
attr iterationvarsf ""
attr measurement ""
attr network Highway
attr processid 36724
attr repetition 0
attr replication #0
attr resultdir results
attr runnumber 0
attr seedset 0
config image-path ../../inet4.4/images:../../simu5G/images:../../veins_inet/images:../../veins-veins-5.2/images
config cmdenv-express-mode true
config cmdenv-autoflush true
config image-path ../../images
config network Highway
config debug-on-errors false
config print-undisposed false
config sim-time-limit 100s
config **.sctp.**.scalar-recording true
config **.sctp.**.vector-recording true
config **.routingRecorder.enabled true
config *.playgroundSizeX 20000m
config *.playgroundSizeY 20000m
config *.playgroundSizeZ 50m
config *.veinsManager.host "\"localhost\""
config *.veinsManager.moduleType "\"simu5g.nodes.cars.NRCar\""
config *.veinsManager.moduleName "\"car\""
config *.veinsManager.updateInterval 0.1s
config *.car[*].mobility.typename VeinsInetMobility
config **.numBands 25
config **.ueTxPower 26
config **.eNodeBTxPower 46
config *.car[*].cellularNic.nrPhy.dynamicCellAssociation true
config *.car[*].masterId 0
config *.car[*].macCellId 0
config *.car[*].nrMasterId 1
config *.car[*].nrMacCellId 1
config **.gNodeB1.macCellId 1
config **.gNodeB1.macNodeId 1
config **.gNodeB2.macCellId 2
config **.gNodeB2.macNodeId 2
config *.car[*].cellularNic.nrPhy.enableHandover true
config *.gNodeB*.cellularNic.phy.enableHandover true
config *.gNodeB*.cellularNic.phy.handoverLatency 50ms
config *.gNodeB*.cellInfo.broadcastMessageInterval 1s
config *.gNodeB*.numX2Apps 1
config *.gNodeB*.x2App[*].server.localPort "5000 + ancestorIndex(1)"
config *.gNodeB1.x2App[0].client.connectAddress "\"gNodeB2%x2ppp0\""
config *.gNodeB2.x2App[0].client.connectAddress "\"gNodeB1%x2ppp0\""
config **.sctp.nagleEnabled false
config **.sctp.enableHeartbeats false

vector 0 Highway.server.ppp[0].ppp transmissionState:vector ETV
attr interpolationmode sample-hold
attr recordingmode vector
attr source transmissionStateChanged
attr title "tx state"
vector 1 Highway.server.udp passedUpPk:vector(count) ETV
attr interpolationmode none
attr recordingmode vector(count)
attr source packetSentToUpper
attr title "packets passed up, count"
vector 2 Highway.server.udp droppedPkWrongPort:vector(count) ETV
attr interpolationmode none
attr recordingmode vector(count)
attr source packetDropReasonIsNoPortFound(packetDropped)
attr title "packets dropped (wrong port), count"
vector 3 Highway.server.udp droppedPkBadChecksum:vector(count) ETV
attr interpolationmode none
attr recordingmode vector(count)
attr source packetDropReasonIsIncorrectlyReceived(packetDropped)
attr title "packets dropped (checksum error), count"
vector 4 Highway.router.ppp[0].ppp transmissionState:vector ETV
attr interpolationmode sample-hold
attr recordingmode vector
attr source transmissionStateChanged
attr title "tx state"
vector 5 Highway.router.ppp[1].ppp transmissionState:vector ETV
attr interpolationmode sample-hold
attr recordingmode vector
attr source transmissionStateChanged
attr title "tx state"
vector 6 Highway.upf.ppp[0].ppp transmissionState:vector ETV
attr interpolationmode sample-hold
attr recordingmode vector
attr source transmissionStateChanged
attr title "tx state"
vector 7 Highway.upf.ppp[1].ppp transmissionState:vector ETV
attr interpolationmode sample-hold
attr recordingmode vector
attr source transmissionStateChanged
attr title "tx state"
vector 8 Highway.upf.pppIf.ppp transmissionState:vector ETV
attr interpolationmode sample-hold
attr recordingmode vector
attr source transmissionStateChanged
attr title "tx state"
vector 9 Highway.upf.udp passedUpPk:vector(count) ETV
attr interpolationmode none
attr recordingmode vector(count)
attr source packetSentToUpper
attr title "packets passed up, count"
vector 10 Highway.upf.udp droppedPkWrongPort:vector(count) ETV
attr interpolationmode none
attr recordingmode vector(count)
attr source packetDropReasonIsNoPortFound(packetDropped)
attr title "packets dropped (wrong port), count"
vector 11 Highway.upf.udp droppedPkBadChecksum:vector(count) ETV
attr interpolationmode none
attr recordingmode vector(count)
attr source packetDropReasonIsIncorrectlyReceived(packetDropped)
attr title "packets dropped (checksum error), count"
vector 12 Highway.gNodeB1.pppIf.ppp transmissionState:vector ETV
attr interpolationmode sample-hold
attr recordingmode vector
attr source transmissionStateChanged
attr title "tx state"
vector 13 Highway.gNodeB1.x2ppp[0].ppp transmissionState:vector ETV
attr interpolationmode sample-hold
attr recordingmode vector
attr source transmissionStateChanged
attr title "tx state"
vector 14 Highway.gNodeB1.pppMEHostIf.ppp transmissionState:vector ETV
attr interpolationmode sample-hold
attr recordingmode vector
attr source transmissionStateChanged
attr title "tx state"
vector 15 Highway.gNodeB1.udp passedUpPk:vector(count) ETV
attr interpolationmode none
attr recordingmode vector(count)
attr source packetSentToUpper
attr title "packets passed up, count"
vector 16 Highway.gNodeB1.udp droppedPkWrongPort:vector(count) ETV
attr interpolationmode none
attr recordingmode vector(count)
attr source packetDropReasonIsNoPortFound(packetDropped)
attr title "packets dropped (wrong port), count"
vector 17 Highway.gNodeB1.udp droppedPkBadChecksum:vector(count) ETV
attr interpolationmode none
attr recordingmode vector(count)
attr source packetDropReasonIsIncorrectlyReceived(packetDropped)
attr title "packets dropped (checksum error), count"
vector 18 Highway.gNodeB2.pppIf.ppp transmissionState:vector ETV
attr interpolationmode sample-hold
attr recordingmode vector
attr source transmissionStateChanged
attr title "tx state"
vector 19 Highway.gNodeB2.x2ppp[0].ppp transmissionState:vector ETV
attr interpolationmode sample-hold
attr recordingmode vector
attr source transmissionStateChanged
attr title "tx state"
vector 20 Highway.gNodeB2.pppMEHostIf.ppp transmissionState:vector ETV
attr interpolationmode sample-hold
attr recordingmode vector
attr source transmissionStateChanged
attr title "tx state"
vector 21 Highway.gNodeB2.udp passedUpPk:vector(count) ETV
attr interpolationmode none
attr recordingmode vector(count)
attr source packetSentToUpper
attr title "packets passed up, count"
vector 22 Highway.gNodeB2.udp droppedPkWrongPort:vector(count) ETV
attr interpolationmode none
attr recordingmode vector(count)
attr source packetDropReasonIsNoPortFound(packetDropped)
attr title "packets dropped (wrong port), count"
vector 23 Highway.gNodeB2.udp droppedPkBadChecksum:vector(count) ETV
attr interpolationmode none
attr recordingmode vector(count)
attr source packetDropReasonIsIncorrectlyReceived(packetDropped)
attr title "packets dropped (checksum error), count"
vector 24 Highway.gNodeB1.sctp "Throughput of Association 23" ETV
vector 25 Highway.gNodeB2.sctp "Throughput of Association 24" ETV
vector 26 Highway.gNodeB1.sctp "Throughput of Association 4" ETV
vector 27 Highway.gNodeB1.sctp "Fast Recovery State 4:192.168.4.2" ETV
vector 28 Highway.gNodeB2.sctp "Throughput of Association 8" ETV
vector 29 Highway.gNodeB2.sctp "Fast Recovery State 8:192.168.4.1" ETV
vector 30 Highway.gNodeB1.x2ppp[0].queue incomingPacketLengths:vector ETV
attr interpolationmode none
attr recordingmode vector
attr source packetLength(packetPushStarted)
attr title "incoming packet lengths"
attr unit b
vector 31 Highway.gNodeB1.x2ppp[0].queue queueingTime:vector ETV
attr interpolationmode none
attr recordingmode vector
attr source queueingTime(packetPulled)
attr title "queueing times"
attr unit s
vector 32 Highway.gNodeB1.x2ppp[0].queue outgoingPacketLengths:vector ETV
attr interpolationmode none
attr recordingmode vector
attr source packetLength(packetPulled)
attr title "outgoing packet lengths"
attr unit b
vector 33 Highway.gNodeB1.x2ppp[0].ppp txPk:vector(packetBytes) ETV
attr interpolationmode none
attr recordingmode vector(packetBytes)
attr source packetSentToLower
attr title "packets transmitted, packetBytes"
vector 34 Highway.gNodeB1.x2ppp[0].queue queueLength:vector ETV
attr autoWarmupFilter false
attr interpolationmode sample-hold
attr recordingmode vector
attr source "warmup(atomic(constant0(packetPushEnded) + count(packetPushStarted) - count(packetPulled) - count(packetRemoved) - count(packetDropped)))"
attr title "queue length"
attr unit pk
vector 35 Highway.gNodeB1.x2ppp[0].queue queueBitLength:vector ETV
attr autoWarmupFilter false
attr interpolationmode sample-hold
attr recordingmode vector
attr source "warmup(atomic(constant0(packetPushEnded) + sum(packetLength(packetPushStarted)) - sum(packetLength(packetPulled)) - sum(packetLength(packetRemoved)) - sum(packetLength(packetDropped))))"
attr title "queue bit length"
attr unit b
vector 36 Highway.gNodeB2.x2ppp[0].queue incomingPacketLengths:vector ETV
attr interpolationmode none
attr recordingmode vector
attr source packetLength(packetPushStarted)
attr title "incoming packet lengths"
attr unit b
vector 37 Highway.gNodeB2.x2ppp[0].queue queueingTime:vector ETV
attr interpolationmode none
attr recordingmode vector
attr source queueingTime(packetPulled)
attr title "queueing times"
attr unit s
vector 38 Highway.gNodeB2.x2ppp[0].queue outgoingPacketLengths:vector ETV
attr interpolationmode none
attr recordingmode vector
attr source packetLength(packetPulled)
attr title "outgoing packet lengths"
attr unit b
vector 39 Highway.gNodeB2.x2ppp[0].ppp txPk:vector(packetBytes) ETV
attr interpolationmode none
attr recordingmode vector(packetBytes)
attr source packetSentToLower
attr title "packets transmitted, packetBytes"
vector 40 Highway.gNodeB2.x2ppp[0].queue queueLength:vector ETV
attr autoWarmupFilter false
attr interpolationmode sample-hold
attr recordingmode vector
attr source "warmup(atomic(constant0(packetPushEnded) + count(packetPushStarted) - count(packetPulled) - count(packetRemoved) - count(packetDropped)))"
attr title "queue length"
attr unit pk
vector 41 Highway.gNodeB2.x2ppp[0].queue queueBitLength:vector ETV
attr autoWarmupFilter false
attr interpolationmode sample-hold
attr recordingmode vector
attr source "warmup(atomic(constant0(packetPushEnded) + sum(packetLength(packetPushStarted)) - sum(packetLength(packetPulled)) - sum(packetLength(packetRemoved)) - sum(packetLength(packetDropped))))"
attr title "queue bit length"
attr unit b
vector 42 Highway.gNodeB2.x2ppp[0].ppp rxPkOk:vector(packetBytes) ETV
attr interpolationmode none
attr recordingmode vector(packetBytes)
attr source rxPkOk
attr title "packets received OK, packetBytes"
vector 43 Highway.gNodeB2.x2ppp[0].ppp passedUpPk:vector(packetBytes) ETV
attr interpolationmode none
attr recordingmode vector(packetBytes)
attr source packetSentToUpper
attr title "packets passed to higher layer, packetBytes"
vector 44 Highway.gNodeB1.x2ppp[0].ppp rxPkOk:vector(packetBytes) ETV
attr interpolationmode none
attr recordingmode vector(packetBytes)
attr source rxPkOk
attr title "packets received OK, packetBytes"
vector 45 Highway.gNodeB1.x2ppp[0].ppp passedUpPk:vector(packetBytes) ETV
attr interpolationmode none
attr recordingmode vector(packetBytes)
attr source packetSentToUpper
attr title "packets passed to higher layer, packetBytes"
vector 46 Highway.gNodeB2.sctp "Throughput of Association 24" ETV
vector 47 Highway.gNodeB2.sctp "Peer Rwnd 24" ETV
vector 48 Highway.gNodeB2.sctp "Fast Recovery State 25:10.0.0.1" ETV
vector 49 Highway.gNodeB2.sctp "Fast Recovery State 25:192.168.2.2" ETV
vector 50 Highway.gNodeB2.sctp "Fast Recovery State 25:192.168.4.1" ETV
vector 51 Highway.gNodeB2.sctp "Fast Recovery State 25:192.168.5.1" ETV
vector 52 Highway.gNodeB1.sctp "Throughput of Association 23" ETV
vector 53 Highway.gNodeB1.sctp "Peer Rwnd 23" ETV
vector 54 Highway.gNodeB1.sctp "Fast Recovery State 26:10.0.0.2" ETV
vector 55 Highway.gNodeB1.sctp "Fast Recovery State 26:192.168.3.2" ETV
vector 56 Highway.gNodeB1.sctp "Fast Recovery State 26:192.168.4.2" ETV
vector 57 Highway.gNodeB1.sctp "Fast Recovery State 26:192.168.6.1" ETV
vector 58 Highway.gNodeB1.sctp "Peer Rwnd 4" ETV
vector 59 Highway.gNodeB1.sctp "Fast Recovery State 4:10.0.0.2" ETV
vector 60 Highway.gNodeB1.sctp "Fast Recovery State 4:192.168.3.2" ETV
vector 61 Highway.gNodeB1.sctp "Fast Recovery State 4:192.168.6.1" ETV
vector 62 Highway.gNodeB2.sctp "Peer Rwnd 8" ETV
vector 63 Highway.gNodeB2.sctp "Fast Recovery State 8:10.0.0.1" ETV
vector 64 Highway.gNodeB2.sctp "Fast Recovery State 8:192.168.2.2" ETV
vector 65 Highway.gNodeB2.sctp "Fast Recovery State 8:192.168.5.1" ETV
vector 66 Highway.gNodeB2.sctp "Slow Start Threshold 25:10.0.0.1" ETV
vector 67 Highway.gNodeB2.sctp "Congestion Window 25:10.0.0.1" ETV
vector 68 Highway.gNodeB2.sctp "Bandwidth 25:10.0.0.1" ETV
vector 69 Highway.gNodeB2.sctp "RTO 25:10.0.0.1" ETV
vector 70 Highway.gNodeB2.sctp "Slow Start Threshold 25:192.168.2.2" ETV
vector 71 Highway.gNodeB2.sctp "Congestion Window 25:192.168.2.2" ETV
vector 72 Highway.gNodeB2.sctp "Bandwidth 25:192.168.2.2" ETV
vector 73 Highway.gNodeB2.sctp "RTO 25:192.168.2.2" ETV
vector 74 Highway.gNodeB2.sctp "Slow Start Threshold 25:192.168.4.1" ETV
vector 75 Highway.gNodeB2.sctp "Congestion Window 25:192.168.4.1" ETV
vector 76 Highway.gNodeB2.sctp "Bandwidth 25:192.168.4.1" ETV
vector 77 Highway.gNodeB2.sctp "RTO 25:192.168.4.1" ETV
vector 78 Highway.gNodeB2.sctp "Slow Start Threshold 25:192.168.5.1" ETV
vector 79 Highway.gNodeB2.sctp "Congestion Window 25:192.168.5.1" ETV
vector 80 Highway.gNodeB2.sctp "Bandwidth 25:192.168.5.1" ETV
vector 81 Highway.gNodeB2.sctp "RTO 25:192.168.5.1" ETV
vector 82 Highway.gNodeB1.sctp "Slow Start Threshold 26:10.0.0.2" ETV
vector 83 Highway.gNodeB1.sctp "Congestion Window 26:10.0.0.2" ETV
vector 84 Highway.gNodeB1.sctp "Bandwidth 26:10.0.0.2" ETV
vector 85 Highway.gNodeB1.sctp "RTO 26:10.0.0.2" ETV
vector 86 Highway.gNodeB1.sctp "Slow Start Threshold 26:192.168.3.2" ETV
vector 87 Highway.gNodeB1.sctp "Congestion Window 26:192.168.3.2" ETV
vector 88 Highway.gNodeB1.sctp "Bandwidth 26:192.168.3.2" ETV
vector 89 Highway.gNodeB1.sctp "RTO 26:192.168.3.2" ETV
vector 90 Highway.gNodeB1.sctp "Slow Start Threshold 26:192.168.4.2" ETV
vector 91 Highway.gNodeB1.sctp "Congestion Window 26:192.168.4.2" ETV
vector 92 Highway.gNodeB1.sctp "Bandwidth 26:192.168.4.2" ETV
vector 93 Highway.gNodeB1.sctp "RTO 26:192.168.4.2" ETV
vector 94 Highway.gNodeB1.sctp "Slow Start Threshold 26:192.168.6.1" ETV
vector 95 Highway.gNodeB1.sctp "Congestion Window 26:192.168.6.1" ETV
vector 96 Highway.gNodeB1.sctp "Bandwidth 26:192.168.6.1" ETV
vector 97 Highway.gNodeB1.sctp "RTO 26:192.168.6.1" ETV
vector 98 Highway.gNodeB1.sctp "Slow Start Threshold 4:10.0.0.2" ETV
vector 99 Highway.gNodeB1.sctp "Congestion Window 4:10.0.0.2" ETV
vector 100 Highway.gNodeB1.sctp "Bandwidth 4:10.0.0.2" ETV
vector 101 Highway.gNodeB1.sctp "RTO 4:10.0.0.2" ETV
vector 102 Highway.gNodeB1.sctp "Slow Start Threshold 4:192.168.3.2" ETV
vector 103 Highway.gNodeB1.sctp "Congestion Window 4:192.168.3.2" ETV
vector 104 Highway.gNodeB1.sctp "Bandwidth 4:192.168.3.2" ETV
vector 105 Highway.gNodeB1.sctp "RTO 4:192.168.3.2" ETV
vector 106 Highway.gNodeB1.sctp "Slow Start Threshold 4:192.168.4.2" ETV
vector 107 Highway.gNodeB1.sctp "Congestion Window 4:192.168.4.2" ETV
vector 108 Highway.gNodeB1.sctp "Bandwidth 4:192.168.4.2" ETV
vector 109 Highway.gNodeB1.sctp "RTO 4:192.168.4.2" ETV
vector 110 Highway.gNodeB1.sctp "Slow Start Threshold 4:192.168.6.1" ETV
vector 111 Highway.gNodeB1.sctp "Congestion Window 4:192.168.6.1" ETV
vector 112 Highway.gNodeB1.sctp "Bandwidth 4:192.168.6.1" ETV
vector 113 Highway.gNodeB1.sctp "RTO 4:192.168.6.1" ETV
vector 114 Highway.gNodeB2.sctp "Slow Start Threshold 8:10.0.0.1" ETV
vector 115 Highway.gNodeB2.sctp "Congestion Window 8:10.0.0.1" ETV
vector 116 Highway.gNodeB2.sctp "Bandwidth 8:10.0.0.1" ETV
vector 117 Highway.gNodeB2.sctp "RTO 8:10.0.0.1" ETV
vector 118 Highway.gNodeB2.sctp "Slow Start Threshold 8:192.168.2.2" ETV
vector 119 Highway.gNodeB2.sctp "Congestion Window 8:192.168.2.2" ETV
vector 120 Highway.gNodeB2.sctp "Bandwidth 8:192.168.2.2" ETV
vector 121 Highway.gNodeB2.sctp "RTO 8:192.168.2.2" ETV
vector 122 Highway.gNodeB2.sctp "Slow Start Threshold 8:192.168.4.1" ETV
vector 123 Highway.gNodeB2.sctp "Congestion Window 8:192.168.4.1" ETV
vector 124 Highway.gNodeB2.sctp "Bandwidth 8:192.168.4.1" ETV
vector 125 Highway.gNodeB2.sctp "RTO 8:192.168.4.1" ETV
vector 126 Highway.gNodeB2.sctp "Slow Start Threshold 8:192.168.5.1" ETV
vector 127 Highway.gNodeB2.sctp "Congestion Window 8:192.168.5.1" ETV
vector 128 Highway.gNodeB2.sctp "Bandwidth 8:192.168.5.1" ETV
vector 129 Highway.gNodeB2.sctp "RTO 8:192.168.5.1" ETV
vector 130 Highway.gNodeB1.cellularNic.mac avgServedBlocksUl:vector ETV
attr recordingmode vector
attr source avgServedBlocksUl
attr title "Avg Served Blocks Ul"
attr unit blocks
vector 131 Highway.gNodeB1.cellularNic.mac avgServedBlocksDl:vector ETV
attr recordingmode vector
attr source avgServedBlocksDl
attr title "Avg Served Blocks Dl"
attr unit blocks
vector 132 Highway.gNodeB2.cellularNic.mac avgServedBlocksUl:vector ETV
attr recordingmode vector
attr source avgServedBlocksUl
attr title "Avg Served Blocks Ul"
attr unit blocks
vector 133 Highway.gNodeB2.cellularNic.mac avgServedBlocksDl:vector ETV
attr recordingmode vector
attr source avgServedBlocksDl
attr title "Avg Served Blocks Dl"
attr unit blocks
vector 134 Highway.car[0].udp passedUpPk:vector(count) ETV
attr interpolationmode none
attr recordingmode vector(count)
attr source packetSentToUpper
attr title "packets passed up, count"
vector 135 Highway.car[0].udp droppedPkWrongPort:vector(count) ETV
attr interpolationmode none
attr recordingmode vector(count)
attr source packetDropReasonIsNoPortFound(packetDropped)
attr title "packets dropped (wrong port), count"
vector 136 Highway.car[0].udp droppedPkBadChecksum:vector(count) ETV
attr interpolationmode none
attr recordingmode vector(count)
attr source packetDropReasonIsIncorrectlyReceived(packetDropped)
attr title "packets dropped (checksum error), count"
vector 137 Highway.car[0].cellularNic.phy servingCell:vector ETV
attr recordingmode vector
attr source servingCell
attr title "ID of the serving eNodeB for the UE"
attr unit ""
vector 138 Highway.car[0].cellularNic.nrChannelModel[0] distance:vector ETV
attr recordingmode vector
attr source distance
attr title "distance between UE and serving base station"
attr unit meters
vector 139 Highway.car[0].cellularNic.nrPhy servingCell:vector ETV
attr recordingmode vector
attr source servingCell
attr title "ID of the serving eNodeB for the UE"
attr unit ""
vector 140 Highway.car[0].cellularNic.nrChannelModel[0] measuredSinrUl:vector ETV
attr recordingmode vector
attr source measuredSinrUl
attr title "SINR measured at feedback computation, UL"
attr unit dB
vector 141 Highway.car[0].cellularNic.nrChannelModel[0] measuredSinrDl:vector ETV
attr recordingmode vector
attr source measuredSinrDl
attr title "SINR measured at feedback computation, DL"
attr unit dB
vector 142 Highway.gNodeB1.cellularNic.mac receivedPacketFromLowerLayer:vector(packetBytes) ETV
attr interpolationmode none
attr recordingmode vector(packetBytes)
attr source receivedPacketFromLowerLayer
vector 143 Highway.car[1].udp passedUpPk:vector(count) ETV
attr interpolationmode none
attr recordingmode vector(count)
attr source packetSentToUpper
attr title "packets passed up, count"
vector 144 Highway.car[1].udp droppedPkWrongPort:vector(count) ETV
attr interpolationmode none
attr recordingmode vector(count)
attr source packetDropReasonIsNoPortFound(packetDropped)
attr title "packets dropped (wrong port), count"
vector 145 Highway.car[1].udp droppedPkBadChecksum:vector(count) ETV
attr interpolationmode none
attr recordingmode vector(count)
attr source packetDropReasonIsIncorrectlyReceived(packetDropped)
attr title "packets dropped (checksum error), count"
vector 146 Highway.car[1].cellularNic.phy servingCell:vector ETV
attr recordingmode vector
attr source servingCell
attr title "ID of the serving eNodeB for the UE"
attr unit ""
vector 147 Highway.car[1].cellularNic.nrChannelModel[0] distance:vector ETV
attr recordingmode vector
attr source distance
attr title "distance between UE and serving base station"
attr unit meters
vector 148 Highway.car[1].cellularNic.nrPhy servingCell:vector ETV
attr recordingmode vector
attr source servingCell
attr title "ID of the serving eNodeB for the UE"
attr unit ""
vector 149 Highway.car[1].cellularNic.nrChannelModel[0] measuredSinrUl:vector ETV
attr recordingmode vector
attr source measuredSinrUl
attr title "SINR measured at feedback computation, UL"
attr unit dB
vector 150 Highway.car[1].cellularNic.nrChannelModel[0] measuredSinrDl:vector ETV
attr recordingmode vector
attr source measuredSinrDl
attr title "SINR measured at feedback computation, DL"
attr unit dB
vector 151 Highway.car[2].udp passedUpPk:vector(count) ETV
attr interpolationmode none
attr recordingmode vector(count)
attr source packetSentToUpper
attr title "packets passed up, count"
vector 152 Highway.car[2].udp droppedPkWrongPort:vector(count) ETV
attr interpolationmode none
attr recordingmode vector(count)
attr source packetDropReasonIsNoPortFound(packetDropped)
attr title "packets dropped (wrong port), count"
vector 153 Highway.car[2].udp droppedPkBadChecksum:vector(count) ETV
attr interpolationmode none
attr recordingmode vector(count)
attr source packetDropReasonIsIncorrectlyReceived(packetDropped)
attr title "packets dropped (checksum error), count"
vector 154 Highway.car[2].cellularNic.phy servingCell:vector ETV
attr recordingmode vector
attr source servingCell
attr title "ID of the serving eNodeB for the UE"
attr unit ""
vector 155 Highway.car[2].cellularNic.nrChannelModel[0] distance:vector ETV
attr recordingmode vector
attr source distance
attr title "distance between UE and serving base station"
attr unit meters
vector 156 Highway.car[2].cellularNic.nrPhy servingCell:vector ETV
attr recordingmode vector
attr source servingCell
attr title "ID of the serving eNodeB for the UE"
attr unit ""
vector 157 Highway.car[2].cellularNic.nrChannelModel[0] measuredSinrUl:vector ETV
attr recordingmode vector
attr source measuredSinrUl
attr title "SINR measured at feedback computation, UL"
attr unit dB
vector 158 Highway.car[2].cellularNic.nrChannelModel[0] measuredSinrDl:vector ETV
attr recordingmode vector
attr source measuredSinrDl
attr title "SINR measured at feedback computation, DL"
attr unit dB
vector 159 Highway.car[3].udp passedUpPk:vector(count) ETV
attr interpolationmode none
attr recordingmode vector(count)
attr source packetSentToUpper
attr title "packets passed up, count"
vector 160 Highway.car[3].udp droppedPkWrongPort:vector(count) ETV
attr interpolationmode none
attr recordingmode vector(count)
attr source packetDropReasonIsNoPortFound(packetDropped)
attr title "packets dropped (wrong port), count"
vector 161 Highway.car[3].udp droppedPkBadChecksum:vector(count) ETV
attr interpolationmode none
attr recordingmode vector(count)
attr source packetDropReasonIsIncorrectlyReceived(packetDropped)
attr title "packets dropped (checksum error), count"
vector 162 Highway.car[3].cellularNic.phy servingCell:vector ETV
attr recordingmode vector
attr source servingCell
attr title "ID of the serving eNodeB for the UE"
attr unit ""
vector 163 Highway.car[3].cellularNic.nrChannelModel[0] distance:vector ETV
attr recordingmode vector
attr source distance
attr title "distance between UE and serving base station"
attr unit meters
vector 164 Highway.car[3].cellularNic.nrPhy servingCell:vector ETV
attr recordingmode vector
attr source servingCell
attr title "ID of the serving eNodeB for the UE"
attr unit ""
vector 165 Highway.car[3].cellularNic.nrChannelModel[0] measuredSinrUl:vector ETV
attr recordingmode vector
attr source measuredSinrUl
attr title "SINR measured at feedback computation, UL"
attr unit dB
vector 166 Highway.car[3].cellularNic.nrChannelModel[0] measuredSinrDl:vector ETV
attr recordingmode vector
attr source measuredSinrDl
attr title "SINR measured at feedback computation, DL"
attr unit dB
vector 167 Highway.car[4].udp passedUpPk:vector(count) ETV
attr interpolationmode none
attr recordingmode vector(count)
attr source packetSentToUpper
attr title "packets passed up, count"
vector 168 Highway.car[4].udp droppedPkWrongPort:vector(count) ETV
attr interpolationmode none
attr recordingmode vector(count)
attr source packetDropReasonIsNoPortFound(packetDropped)
attr title "packets dropped (wrong port), count"
vector 169 Highway.car[4].udp droppedPkBadChecksum:vector(count) ETV
attr interpolationmode none
attr recordingmode vector(count)
attr source packetDropReasonIsIncorrectlyReceived(packetDropped)
attr title "packets dropped (checksum error), count"
vector 170 Highway.car[4].cellularNic.phy servingCell:vector ETV
attr recordingmode vector
attr source servingCell
attr title "ID of the serving eNodeB for the UE"
attr unit ""
vector 171 Highway.car[4].cellularNic.nrChannelModel[0] distance:vector ETV
attr recordingmode vector
attr source distance
attr title "distance between UE and serving base station"
attr unit meters
vector 172 Highway.car[4].cellularNic.nrPhy servingCell:vector ETV
attr recordingmode vector
attr source servingCell
attr title "ID of the serving eNodeB for the UE"
attr unit ""
vector 173 Highway.car[4].cellularNic.nrChannelModel[0] measuredSinrUl:vector ETV
attr recordingmode vector
attr source measuredSinrUl
attr title "SINR measured at feedback computation, UL"
attr unit dB
vector 174 Highway.car[4].cellularNic.nrChannelModel[0] measuredSinrDl:vector ETV
attr recordingmode vector
attr source measuredSinrDl
attr title "SINR measured at feedback computation, DL"
attr unit dB
vector 175 Highway.gNodeB2.cellularNic.mac receivedPacketFromLowerLayer:vector(packetBytes) ETV
attr interpolationmode none
attr recordingmode vector(packetBytes)
attr source receivedPacketFromLowerLayer
vector 176 Highway.car[5].udp passedUpPk:vector(count) ETV
attr interpolationmode none
attr recordingmode vector(count)
attr source packetSentToUpper
attr title "packets passed up, count"
vector 177 Highway.car[5].udp droppedPkWrongPort:vector(count) ETV
attr interpolationmode none
attr recordingmode vector(count)
attr source packetDropReasonIsNoPortFound(packetDropped)
attr title "packets dropped (wrong port), count"
vector 178 Highway.car[5].udp droppedPkBadChecksum:vector(count) ETV
attr interpolationmode none
attr recordingmode vector(count)
attr source packetDropReasonIsIncorrectlyReceived(packetDropped)
attr title "packets dropped (checksum error), count"
vector 179 Highway.car[5].cellularNic.phy servingCell:vector ETV
attr recordingmode vector
attr source servingCell
attr title "ID of the serving eNodeB for the UE"
attr unit ""
vector 180 Highway.car[5].cellularNic.nrChannelModel[0] distance:vector ETV
attr recordingmode vector
attr source distance
attr title "distance between UE and serving base station"
attr unit meters
vector 181 Highway.car[5].cellularNic.nrPhy servingCell:vector ETV
attr recordingmode vector
attr source servingCell
attr title "ID of the serving eNodeB for the UE"
attr unit ""
vector 182 Highway.car[5].cellularNic.nrChannelModel[0] measuredSinrUl:vector ETV
attr recordingmode vector
attr source measuredSinrUl
attr title "SINR measured at feedback computation, UL"
attr unit dB
vector 183 Highway.car[5].cellularNic.nrChannelModel[0] measuredSinrDl:vector ETV
attr recordingmode vector
attr source measuredSinrDl
attr title "SINR measured at feedback computation, DL"
attr unit dB
vector 184 Highway.car[6].udp passedUpPk:vector(count) ETV
attr interpolationmode none
attr recordingmode vector(count)
attr source packetSentToUpper
attr title "packets passed up, count"
vector 185 Highway.car[6].udp droppedPkWrongPort:vector(count) ETV
attr interpolationmode none
attr recordingmode vector(count)
attr source packetDropReasonIsNoPortFound(packetDropped)
attr title "packets dropped (wrong port), count"
vector 186 Highway.car[6].udp droppedPkBadChecksum:vector(count) ETV
attr interpolationmode none
attr recordingmode vector(count)
attr source packetDropReasonIsIncorrectlyReceived(packetDropped)
attr title "packets dropped (checksum error), count"
vector 187 Highway.car[6].cellularNic.phy servingCell:vector ETV
attr recordingmode vector
attr source servingCell
attr title "ID of the serving eNodeB for the UE"
attr unit ""
vector 188 Highway.car[6].cellularNic.nrChannelModel[0] distance:vector ETV
attr recordingmode vector
attr source distance
attr title "distance between UE and serving base station"
attr unit meters
vector 189 Highway.car[6].cellularNic.nrPhy servingCell:vector ETV
attr recordingmode vector
attr source servingCell
attr title "ID of the serving eNodeB for the UE"
attr unit ""
vector 190 Highway.car[6].cellularNic.nrChannelModel[0] measuredSinrUl:vector ETV
attr recordingmode vector
attr source measuredSinrUl
attr title "SINR measured at feedback computation, UL"
attr unit dB
vector 191 Highway.car[6].cellularNic.nrChannelModel[0] measuredSinrDl:vector ETV
attr recordingmode vector
attr source measuredSinrDl
attr title "SINR measured at feedback computation, DL"
attr unit dB
130	29370 628018 83 453686 0.001 32.768 32768 0 0 0 0
131	657388 628018 83 453686 0.001 32.768 32768 0 0 0 0
132	1285406 628019 84 453687 0.001 32.768 32768 0 0 0 0
133	1913425 628019 84 453687 0.001 32.768 32768 0 0 0 0
vector 192 Highway.car[7].udp passedUpPk:vector(count) ETV
attr interpolationmode none
attr recordingmode vector(count)
attr source packetSentToUpper
attr title "packets passed up, count"
vector 193 Highway.car[7].udp droppedPkWrongPort:vector(count) ETV
attr interpolationmode none
attr recordingmode vector(count)